# vtk DataFile Version 2.0
3D Surface
ASCII
DATASET UNSTRUCTURED_GRID
POINTS 41576 float
-3.44855 -9.15044 -1.96894 
3.6 -9.14847 -1.96976 
6.9 -9.15137 -1.93397 
-3.44807 -9.00089 -1.97928 
3.6 -9.00174 -1.97059 
6.9 -8.9986 -1.93523 
-3.44674 -8.84933 -1.97763 
3.6 -8.85616 -1.99396 
6.9 -8.85236 -1.96193 
-7.03558 -8.69123 -1.91026 
-6.92317 -8.68534 -1.89887 
-3.57149 -8.69197 -1.90899 
-3.44597 -8.70041 -1.97145 
3.6 -8.70399 -2.01185 
6.90023 -8.7066 -1.99248 
-7.04521 -8.5471 -1.93646 
-6.90735 -8.54481 -1.93111 
-3.58848 -8.5451 -1.92966 
-3.44365 -8.55314 -1.98214 
-0.145973 -8.54405 -1.93145 
3.59629 -8.54992 -2.01357 
3.71771 -8.54328 -1.91492 
6.78379 -8.54103 -1.91291 
6.90418 -8.55268 -2.00798 
-10.4839 -8.38634 -1.90887 
-10.3643 -8.38387 -1.9122 
-7.05479 -8.40326 -1.96507 
-6.89542 -8.40345 -1.96427 
-3.60347 -8.40192 -1.95781 
-3.44114 -8.40486 -1.99943 
-3.31983 -8.3921 -1.92274 
-0.153244 -8.40388 -1.96665 
-0.0185998 -8.38882 -1.91811 
3.47732 -8.39276 -1.91804 
3.59459 -8.40048 -2.01126 
3.7363 -8.39496 -1.93045 
6.76437 -8.39439 -1.92914 
6.90615 -8.40105 -2.00663 
7.0188 -8.39178 -1.91445 
-10.4998 -8.24977 -1.9493 
-10.348 -8.25236 -1.95686 
-7.19132 -8.24448 -1.9353 
-7.06084 -8.25626 -1.99559 
-6.88918 -8.25664 -1.99589 
-6.75861 -8.24454 -1.93537 
-3.74037 -8.24404 -1.93352 
-3.61187 -8.25782 -1.99071 
-3.44055 -8.25378 -2.01155 
-3.30015 -8.24992 -1.94973 
-0.280405 -8.23944 -1.92234 
-0.157686 -8.25357 -1.9971 
0.00118273 -8.25078 -1.95262 
3.4567 -8.247 -1.9394 
3.59411 -8.25171 -2.01555 
3.75416 -8.25233 -1.95865 
6.7461 -8.25225 -1.95821 
6.90692 -8.25244 -2.01312 
7.04032 -8.2458 -1.93541 
-10.5119 -8.09902 -1.99313 
-10.3388 -8.09877 -2.00076 
-10.2075 -8.09421 -1.93711 
-7.33516 -8.08608 -1.92619 
-7.2101 -8.10233 -1.98039 
-7.05484 -8.08858 -2.00573 
-6.8951 -8.08902 -2.00747 
-6.7402 -8.10305 -1.97931 
-6.61436 -8.08623 -1.92655 
-3.88131 -8.08505 -1.91916 
-3.75839 -8.10648 -1.97152 
-3.60949 -8.10361 -2.01591 
-3.44383 -8.09937 -2.01938 
-3.2885 -8.1079 -1.98526 
-3.1605 -8.09216 -1.93127 
-0.423354 -8.0753 -1.91083 
-0.303128 -8.10043 -1.95825 
-0.154108 -8.08868 -1.98698 
0.00820436 -8.09326 -1.98996 
0.14151 -8.098 -1.93409 
3.31826 -8.08574 -1.92051 
3.44104 -8.10574 -1.97293 
3.59482 -8.09683 -2.01903 
3.76226 -8.10758 -1.99586 
3.89623 -8.09688 -1.9426 
6.60413 -8.09671 -1.94191 
6.73786 -8.10841 -1.99527 
6.90648 -8.09892 -2.01827 
7.05745 -8.10464 -1.9671 
7.1751 -8.08308 -1.91234 
10.3616 -8.09187 -1.93074 
-10.5006 -7.95323 -1.94412 
-10.3501 -7.94959 -1.95076 
-10.1954 -7.94219 -1.99338 
-10.0618 -7.94388 -1.92737 
-7.47872 -7.93542 -1.91719 
-7.35822 -7.94612 -1.99553 
-7.19983 -7.9496 -1.95086 
-7.05027 -7.95552 -1.94088 
-6.89957 -7.95342 -1.94415 
-6.75149 -7.94678 -1.95788 
-6.59103 -7.94937 -1.9971 
-6.46753 -7.93424 -1.92273 
-4.03119 -7.92995 -1.91696 
-3.90499 -7.95418 -1.96227 
-3.75996 -7.94803 -2.01443 
-3.59891 -7.93709 -2.00927 
-3.4509 -7.93642 -2.00729 
-3.29312 -7.94383 -2.01552 
-3.14141 -7.95555 -1.97481 
-3.01243 -7.93688 -1.92727 
-0.454638 -7.94733 -1.97406 
-0.305145 -7.9617 -1.92747 
-0.151689 -7.97021 -1.92088 
-0.000622346 -7.97236 -1.91889 
0.154385 -7.96927 -1.91069 
0.296173 -7.95105 -1.93754 
3.16871 -7.92988 -1.92074 
3.2929 -7.95262 -1.9686 
3.44414 -7.94067 -2.0073 
3.59977 -7.93556 -1.998 
3.75078 -7.93884 -2.0087 
3.91148 -7.95421 -1.99501 
4.04491 -7.94444 -1.94005 
6.45554 -7.94391 -1.93885 
6.58894 -7.95611 -1.98966 
6.74662 -7.94147 -2.01512 
6.90136 -7.93633 -2.00586 
7.0612 -7.94508 -2.00646 
7.1999 -7.94994 -1.94979 
10.2173 -7.94317 -1.91839 
10.3468 -7.94386 -1.97761 
-10.1907 -7.83551 -1.9093 
-10.0397 -7.81285 -1.91998 
-9.89528 -7.80272 -1.97753 
-7.64149 -7.7932 -1.92131 
-7.50201 -7.80554 -1.93225 
-7.36054 -7.8315 -1.91319 
-6.59034 -7.81962 -1.92416 
-6.45085 -7.79508 -1.97138 
-6.3099 -7.79207 -1.92363 
-4.18834 -7.7838 -1.92824 
-4.05742 -7.80433 -1.97395 
-3.89839 -7.79026 -2.00094 
-3.74765 -7.79325 -1.96388 
-3.5999 -7.7991 -1.95165 
-3.44997 -7.8005 -1.94911 
-3.30132 -7.795 -1.9598 
-3.154 -7.79028 -1.98623 
-2.98997 -7.80351 -1.99306 
-2.85982 -7.78851 -1.93219 
-0.735273 -7.78794 -1.89143 
3.02355 -7.78224 -1.9154 
3.14152 -7.79764 -1.99678 
3.29901 -7.80195 -1.94573 
3.44925 -7.80957 -1.93531 
3.60071 -7.80925 -1.93508 
3.75063 -7.80287 -1.94508 
3.89663 -7.79398 -1.96407 
4.05638 -7.79659 -2.01432 
4.19578 -7.79641 -1.9412 
6.30386 -7.79595 -1.94193 
6.44076 -7.80087 -2.00941 
6.60513 -7.79016 -1.98071 
6.7511 -7.79568 -1.95841 
6.89983 -7.80192 -1.94661 
7.05032 -7.80194 -1.94661 
7.19941 -7.7939 -1.97177 
7.35101 -7.80046 -1.95325 
7.47938 -7.77165 -1.91519 
10.0469 -7.79996 -1.96391 
10.1822 -7.82688 -1.90197 
-9.75142 -7.6474 -1.96933 
-9.61856 -7.63079 -1.90612 
-7.92628 -7.62798 -1.90759 
-7.79876 -7.64982 -1.99 
-6.2808 -7.66798 -1.9174 
-6.14758 -7.65 -2.00983 
-6.02478 -7.62878 -1.91386 
-4.3423 -7.64251 -1.93532 
-4.20472 -7.64977 -2.01796 
-4.05047 -7.65058 -1.94873 
-3.90677 -7.66901 -1.92401 
-3.14207 -7.67355 -1.91762 
-2.99686 -7.65499 -1.94143 
-2.84979 -7.64298 -2.00755 
-2.70455 -7.64633 -1.93956 
-2.5663 -7.61771 -1.91425 
-0.900268 -7.65004 -1.94611 
2.85999 -7.64009 -1.91442 
2.99857 -7.65433 -1.93522 
3.1377 -7.6828 -1.91275 
4.05625 -7.66405 -1.93072 
4.1967 -7.64611 -1.96549 
4.35536 -7.65586 -1.9802 
4.49077 -7.63464 -1.93006 
6.00899 -7.63315 -1.92833 
6.14575 -7.65367 -1.96524 
6.30436 -7.64218 -1.99336 
6.44721 -7.65537 -1.94143 
6.59165 -7.67376 -1.91657 
7.36134 -7.66479 -1.92512 
7.50078 -7.64519 -2.00199 
7.63347 -7.63848 -1.92044 
-9.57629 -7.52059 -1.90892 
-9.45011 -7.50041 -1.9929 
-9.32096 -7.47653 -1.91116 
-8.23004 -7.46889 -1.91147 
-8.10123 -7.50307 -1.97171 
-7.96847 -7.51731 -1.90808 
-5.99296 -7.50831 -1.92033 
-5.85215 -7.4949 -1.93287 
-5.71281 -7.46672 -1.91297 
-4.64259 -7.48492 -1.92974 
-4.50355 -7.50466 -1.96985 
-4.34628 -7.49607 -1.96781 
-4.20972 -7.51798 -1.92736 
-2.83668 -7.53085 -1.91518 
-2.69542 -7.50404 -1.93909 
-2.54774 -7.50715 -2.00781 
-2.40741 -7.48956 -1.93455 
-1.19992 -7.49766 -1.93594 
2.57628 -7.47684 -1.90941 
2.70023 -7.5 -1.9996 
2.8234 -7.52398 -1.90954 
4.35678 -7.50713 -1.93695 
4.49551 -7.49923 -2.01811 
4.64981 -7.49976 -1.94947 
4.79298 -7.48112 -1.92413 
5.7075 -7.48065 -1.9226 
5.8501 -7.49987 -1.94975 
6.00228 -7.50272 -2.01932 
6.14668 -7.5032 -1.94266 
6.28581 -7.52961 -1.91356 
7.66736 -7.52001 -1.91062 
7.80292 -7.50224 -1.9843 
9.59644 -7.5 -1.90069 
-9.2904 -7.356 -1.92491 
-9.14984 -7.35253 -1.95986 
-9.00467 -7.33421 -1.92636 
-8.85165 -7.32708 -1.9176 
-8.69906 -7.32631 -1.91627 
-8.54742 -7.33098 -1.92358 
-8.39647 -7.34317 -1.93222 
-8.24607 -7.34851 -1.96819 
-5.82771 -7.3665 -1.91684 
-5.70797 -7.35285 -2.00063 
-5.5519 -7.34663 -1.94302 
-5.40181 -7.33616 -1.9299 
-5.25024 -7.3333 -1.925 
-5.09847 -7.33506 -1.92723 
-4.94831 -7.34293 -1.9386 
-4.80251 -7.35404 -1.95932 
-4.64349 -7.35222 -2.01413 
-4.5065 -7.35584 -1.93731 
-2.53868 -7.36341 -1.93081 
-2.40805 -7.34609 -2.00058 
-2.24761 -7.35371 -1.96065 
-2.10165 -7.34331 -1.9394 
-1.95219 -7.3344 -1.92637 
-1.80051 -7.32995 -1.92091 
-1.64832 -7.33153 -1.92374 
-1.49777 -7.34225 -1.92948 
-1.35186 -7.35035 -1.94387 
2.26495 -7.31745 -1.91345 
2.4003 -7.34906 -1.94659 
2.53767 -7.36133 -1.91176 
4.51139 -7.366 -1.92847 
4.64266 -7.3456 -1.97383 
4.80189 -7.35971 -2.00108 
4.95232 -7.35611 -1.96236 
5.09976 -7.34856 -1.94744 
5.25 -7.34478 -1.94114 
5.40023 -7.34852 -1.94737 
5.5481 -7.3558 -1.9616 
5.69609 -7.36002 -1.99281 
5.85946 -7.345 -1.98927 
5.99196 -7.36047 -1.93451 
7.94837 -7.34827 -1.96017 
8.08766 -7.3349 -1.91219 
9.2991 -7.33668 -1.89567 
-9.13407 -7.21245 -1.92329 
-9.01069 -7.20131 -1.99 
-8.84911 -7.21069 -1.98487 
-8.70126 -7.21174 -1.98074 
-8.54149 -7.20674 -1.99802 
-8.40683 -7.20322 -1.93625 
-5.6819 -7.22029 -1.92143 
-5.55704 -7.19736 -1.96892 
-5.4042 -7.20994 -2.00502 
-5.24855 -7.21381 -1.99 
-5.10188 -7.21412 -1.99133 
-4.94921 -7.21103 -2.0063 
-4.7894 -7.19571 -1.98866 
-4.65765 -7.20876 -1.93552 
-2.38446 -7.21891 -1.92264 
-2.25615 -7.19652 -1.96654 
-2.10527 -7.20804 -2.01077 
-1.94703 -7.21389 -1.99062 
-1.80021 -7.21228 -1.98618 
-1.64021 -7.20558 -1.99447 
-1.51025 -7.20463 -1.93096 
1.50193 -7.19885 -1.94259 
1.64638 -7.18282 -1.91718 
1.80089 -7.18075 -1.92217 
1.95206 -7.18486 -1.9279 
2.10269 -7.19512 -1.93988 
2.25747 -7.20212 -1.9957 
2.3761 -7.21962 -1.91531 
4.66877 -7.22017 -1.91686 
4.79509 -7.19585 -1.96205 
4.94045 -7.2022 -2.01476 
5.10194 -7.21332 -2.00651 
5.25003 -7.21432 -2.00197 
5.39785 -7.21365 -2.00616 
5.55716 -7.20508 -2.01623 
5.70804 -7.19413 -1.97278 
5.83726 -7.21374 -1.92618 
8.12018 -7.21234 -1.91569 
8.24547 -7.20575 -1.99195 
8.39637 -7.19262 -1.93692 
8.54733 -7.18131 -1.92327 
8.69941 -7.17737 -1.91759 
8.85055 -7.17841 -1.92005 
9.00421 -7.18443 -1.91471 
9.14729 -7.19992 -1.94111 
-8.99059 -7.05759 -1.93365 
-8.86166 -7.04478 -1.98912 
-8.69132 -7.05394 -2.01268 
-8.54934 -7.04959 -1.95127 
-5.53088 -7.06595 -1.91907 
-5.40781 -7.04448 -1.9698 
-5.25997 -7.04989 -2.01594 
-5.09431 -7.05398 -2.01908 
-4.93849 -7.04268 -1.98782 
-4.80769 -7.05654 -1.93553 
-2.23133 -7.06604 -1.91884 
-2.10784 -7.0441 -1.96974 
-1.95772 -7.0515 -2.01758 
-1.78697 -7.04753 -2.00572 
-1.65063 -7.05042 -1.94879 
1.64998 -7.05 -1.95004 
1.79307 -7.05986 -1.98916 
1.95412 -7.06073 -2.00049 
2.1059 -7.04824 -1.96598 
2.23029 -7.07098 -1.91916 
4.81894 -7.06532 -1.91872 
4.94183 -7.0436 -1.97085 
5.09021 -7.04663 -2.01567 
5.24949 -7.05348 -2.02054 
5.40752 -7.04889 -2.01861 
5.56085 -7.04196 -1.98215 
5.68817 -7.05927 -1.92895 
8.26648 -7.06581 -1.92394 
8.39051 -7.04866 -1.98098 
8.54961 -7.06131 -1.99286 
8.70009 -7.06212 -1.98211 
8.85865 -7.05675 -1.99216 
8.98977 -7.05315 -1.93127 
-8.84932 -6.90042 -1.94864 
-8.69225 -6.89534 -2.00257 
-8.57072 -6.90885 -1.92215 
-5.38944 -6.90645 -1.93211 
-5.26177 -6.89226 -1.98925 
-5.09094 -6.89568 -2.01188 
-4.94985 -6.89992 -1.95029 
[...]
CELL_DATA 41576
SCALARS LSValues float
LOOKUP_TABLE default
0.127076
0.132516
-0.107668
0.196226
0.138225
-0.0993281
0.186886
0.298822
0.0826474
-0.312744
-0.438903
-0.416059
0.148098
0.41405
0.290085
-0.105707
-0.154497
-0.18691
0.224694
-0.142222
0.425237
-0.440649
-0.466969
0.389392
-0.346532
-0.334044
0.115344
0.11051
0.0654862
0.343305
-0.293164
0.121243
-0.311069
-0.379619
0.411608
-0.202977
-0.215147
0.382107
-0.432244
-0.00572737
0.055143
-0.145982
0.326824
0.329371
-0.14491
-0.161787
0.304535
0.421528
-0.00247963
-0.303835
0.324146
0.0225553
-0.104513
0.440811
0.0751435
0.0712064
0.426475
-0.148172
0.309663
0.355119
-0.13197
-0.274601
0.226144
0.389969
0.399907
0.219338
-0.268861
-0.329416
0.17827
0.449825
0.466206
0.271853
-0.186003
-0.485794
0.0630452
0.272711
0.285178
-0.137953
-0.317924
0.18576
0.463755
0.335921
-0.0708975
-0.0769114
0.333898
0.459374
0.144
-0.41152
-0.197941
-0.0513699
0.00671312
0.301794
-0.203061
-0.353946
0.315631
0.00722908
-0.0831143
-0.0525786
0.0631589
0.325471
-0.317654
-0.372802
0.104856
0.440198
0.41398
0.403477
0.445487
0.193509
-0.247348
0.16835
-0.198568
-0.288286
-0.314582
-0.328301
-0.091486
-0.367026
0.144537
0.396113
0.34894
0.40559
0.322197
-0.104371
-0.11483
0.291232
0.442775
0.394937
0.394092
-0.00183998
-0.28342
0.195619
-0.492118
-0.260145
0.190741
-0.218794
-0.131351
-0.445263
-0.295644
0.150334
-0.216467
-0.267102
0.180168
0.352342
0.117063
0.0143165
-0.00777358
0.0835215
0.26188
0.304551
-0.204186
-0.431695
-0.398311
0.322876
-0.0359087
-0.139726
-0.137977
-0.0444393
0.116354
0.434201
-0.0819131
-0.0796792
0.405708
0.231442
0.071825
-0.0299574
-0.0301936
0.156604
0.024173
-0.467407
0.0972602
-0.464355
0.131861
-0.400897
-0.447414
0.266916
-0.358862
0.399549
-0.437255
-0.150299
0.455249
-0.0113608
-0.27766
-0.342974
-0.0841908
0.389418
-0.0914518
-0.482397
-0.0260822
-0.274324
-0.107943
-0.467945
-0.210294
0.114428
0.215249
-0.240282
-0.256701
0.115425
0.301408
-0.0855993
-0.349376
-0.258948
0.349627
-0.288628
-0.433892
0.286048
-0.42891
-0.493213
0.148107
-0.381384
-0.224435
-0.126116
-0.475752
-0.227963
0.143825
0.129693
-0.273912
-0.448278
-0.0955375
0.39191
-0.173722
-0.0963018
-0.472165
0.330681
-0.481139
-0.136481
0.45612
-0.00468895
-0.277049
-0.287444
-0.00235287
0.463351
-0.0682493
-0.440155
-0.381346
0.231323
-0.330481
-0.201319
0.0700891
-0.234001
-0.324644
-0.335941
-0.269062
-0.140733
0.127706
-0.375688
0.346963
-0.0608243
-0.198628
-0.240996
-0.217833
-0.106898
0.0783704
0.432479
-0.124685
-0.234933
0.347781
0.0832083
-0.100486
-0.227512
-0.286142
-0.262339
-0.157932
-0.0447596
-0.477722
-0.024624
-0.303783
-0.262941
0.179318
0.353295
0.105437
-0.0226542
-0.0795567
-0.0232392
0.098738
0.303394
0.281257
-0.178287
0.0714974
-0.319161
-0.384051
-0.280137
0.285998
0.254449
0.235174
0.336489
-0.119276
-0.363019
0.146073
0.380896
0.298823
0.308252
0.389811
0.280264
-0.158787
-0.328329
0.130361
0.415301
0.303918
0.268949
0.31551
-0.171276
-0.0539607
-0.281438
-0.27444
-0.217753
-0.0879399
0.313441
-0.415025
-0.373623
0.103219
0.441585
0.398087
0.37277
0.397049
0.449304
0.180876
-0.257043
-0.337441
0.288175
-0.121694
-0.267123
-0.321432
-0.303457
-0.284412
-0.0647557
-0.16861
0.28862
0.42751
0.011658
-0.339881
0.162795
0.449633
0.46517
0.284942
-0.143454
-0.337339
0.164101
0.456647
0.392514
-0.0111966
0.000309343
0.285782
0.354057
0.122393
-0.384763
-0.335052
0.173398
0.448686
0.471438
0.463036
0.252158
-0.211876
-0.307113
0.22634
0.305639
0.244604
0.300103
-0.16564
-0.0122125
0.360869
-0.307174
-0.17632
0.295376
0.423395
0.00259319
-0.182378
0.348308
0.180334
-0.369183
-0.343888
0.228976
0.207294
-0.307726
-0.172162
0.295448
0.471562
0.36478
-0.0506133
-0.208201
0.260565
0.433621
0.0165365
-0.332923
0.250391
0.0550557
0.325532
-0.30989
0.130238
-0.100924
0.0456665
-0.127999
0.0720212
0.466457
0.166724
-0.403361
-0.00675776
0.408616
-0.253188
0.107165
-0.201306
0.155328
-0.163178
-0.417081
-0.127376
-0.132511
0.46819
-0.0543089
-0.266224
0.364203
-0.496754
-0.230462
-0.448123
0.022532
-0.482532
-0.31501
-0.31034
0.468686
-0.247947
-0.477818
0.378213
0.0481415
-0.459071
0.460001
-0.416061
0.352867
-0.189735
0.452788
-0.493626
0.346881
-0.328639
0.455077
0.345029
-0.275829
0.448762
-0.434995
0.355857
-0.250283
-0.487698
-0.11239
-0.263584
-0.417358
0.438712
-0.285086
-0.489553
0.391026
0.0847709
-0.230807
0.105442
-0.194429
-0.443115
-0.00698299
-0.214147
0.460441
-0.114197
-0.292923
0.372097
-0.370525
0.196141
0.0182308
0.311741
-0.351969
0.0934482
-0.129586
0.104666
-0.225529
0.0174184
0.468432
0.0890348
-0.0436544
0.416168
-0.272229
-0.0551547
0.289136
-0.42437
-0.226372
0.258182
0.418762
-0.0310283
-0.231249
0.319104
0.155113
-0.413769
-0.381255
0.235489
0.130386
-0.423174
-0.221719
0.261812
0.471887
0.307495
-0.151807
-0.28342
0.219919
0.437543
-0.0158627
-0.239113
0.245842
0.392153
-0.0856192
-0.393586
0.14701
0.384188
0.387326
0.296737
-0.171578
-0.384472
0.130129
0.451481
0.374828
-0.050913
-0.0568453
0.301227
0.36841
-0.00861759
-0.352419
0.140153
0.439993
0.418338
0.441441
0.183347
-0.291062
-0.426286
0.106474
0.433
0.460334
0.249944
-0.218205
-0.34154
0.141248
0.440576
0.436534
0.243869
-0.20642
-0.4903
0.204814
-0.051604
-0.111823
-0.0557748
0.0751622
0.365037
-0.253638
-0.358654
0.111383
0.409404
0.273388
0.246455
0.292347
-0.239167
-0.171134
-0.238866
-0.224292
-0.157591
-0.0393617
0.0858047
-0.346885
0.168841
0.298413
0.103519
0.0336691
0.100268
0.272553
0.219307
-0.296819
-0.4179
0.055667
0.416515
0.306912
0.273539
0.34292
0.221982
-0.307344
-0.31638
0.196108
0.294968
0.11214
0.0933842
0.218235
0.320287
-0.242389
-0.460125
0.0890674
-0.44331
-0.294571
0.0666031
-0.154204
-0.2766
0.361542
0.0334426
-0.146559
-0.276329
-0.319131
-0.277705
-0.135653
-0.206145
-0.422524
-0.362187
0.30281
-0.357362
-0.309511
0.363413
-0.123446
-0.346128
-0.351683
-0.12088
0.364777
-0.238116
-0.306293
0.266694
0.0903281
-0.101831
-0.225432
-0.275557
-0.230459
-0.131061
0.256228
-0.269657
-0.242698
0.366938
-0.122342
-0.345591
-0.395968
-0.22128
0.112806
-0.0633027
-0.0968566
-0.340217
0.43265
-0.317079
-0.154656
0.330076
-0.232478
-0.274933
-0.404565
0.171485
-0.4952
0.104161
-0.237533
-0.191219
0.309255
-0.416291
-0.188585
0.422483
-0.18257
-0.358333
0.243509
-0.409871
0.304823
-0.190656
-0.310714
0.434074
-0.247233
-0.21036
0.178732
-0.293969
-0.180832
0.370032
-0.170928
-0.22683
0.111481
-0.297145
-0.211495
0.353591
-0.44485
-0.445064
0.225844
-0.161528
-0.442756
-0.225163
0.249294
-0.117112
-0.487887
0.107616
-0.421261
-0.444668
-0.166448
0.259183
-0.426799
-0.209261
0.198682
-0.270849
-0.460089
0.146689
-0.320332
0.3367
0.0486654
-0.0751572
-0.11738
-0.0321006
0.130203
0.300166
-0.27968
-0.323254
0.309116
-0.0955425
-0.213286
-0.21212
-0.0779161
0.308393
-0.187051
-0.204108
0.365852
-0.0027747
-0.132435
-0.154196
-0.0701618
0.0836741
0.377536
-0.238514
-0.387337
0.318068
-0.347824
-0.172056
-0.131802
0.000585014
0.341034
-0.152698
-0.279507
0.37325
0.0481271
-0.105155
-0.17203
-0.129351
0.161866
-0.294562
-0.310994
0.179304
0.409696
0.359205
0.426473
0.115773
-0.349351
0.037031
-0.289303
-0.358888
-0.47821
-0.354678
0.0865576
-0.307743
0.216303
0.350224
0.3219
0.301792
-0.20712
-0.199546
0.287971
0.375168
0.340875
0.411519
0.210014
-0.25726
-0.0574784
0.0984901
-0.115225
0.33272
0.356376
0.348487
-0.115215
-0.253088
0.230968
0.390698
0.33555
0.280699
-0.241041
-0.246145
0.235335
0.469854
0.182915
-0.32583
-0.128774
0.322183
0.13257
-0.0784272
-0.230508
0.241112
0.37476
-0.108648
-0.129796
0.306023
0.469271
0.24835
-0.21721
-0.095479
0.357698
0.436014
0.396246
0.007967
-0.177843
0.278439
0.411845
-0.0397775
-0.0339687
0.464815
-0.114154
-0.0209748
0.235504
-0.453232
-0.088341
0.17932
0.0484856
0.467068
-0.0240914
0.0769291
0.352794
0.19127
-0.351204
0.00119145
0.347319
-0.333583
-0.295227
0.444301
-0.395832
-0.398299
0.036238
-0.481219
-0.0806546
-0.211591
0.462354
-0.286628
-0.216459
0.256216
-0.0743647
-0.288045
0.265
0.441339
-0.19601
-0.383677
-0.455672
0.435965
0.192219
-0.324301
0.254154
0.261446
-0.472447
0.307367
0.260689
-0.499974
0.190294
0.0151528
0.0828068
0.250497
-0.00393824
-0.213813
-0.123182
0.269337
-0.150693
-0.270694
-0.159728
0.222951
-0.00601859
-0.168859
0.0300624
0.158677
-0.416735
0.18536
0.0669647
0.256019
0.215341
-0.206067
-0.407795
0.174674
0.311643
-0.241091
-0.425695
0.41862
0.338517
0.0383287
-0.128999
0.221993
-0.456705
0.455297
-0.492183
0.062411
-0.0669058
-0.319535
0.412799
-0.466419
-0.32625
0.40909
0.283732
-0.190968
-0.384317
0.163917
0.321693
-0.267552
-0.215231
0.469887
-0.249785
-0.215613
0.205233
-0.326971
0.18374
-0.0646062
0.446971
-0.21433
-0.0490322
0.460361
0.446836
0.158303
-0.361753
-0.00730601
0.385563
0.419789
0.0362115
0.0492084
0.460521
0.0234915
-0.38285
0.144922
0.331863
-0.237138
0.0261421
0.373112
-0.227616
-0.307686
0.204311
0.461527
0.0661288
-0.264382
0.224142
0.343799
0.36916
0.437008
0.080242
-0.411492
-0.110051
0.301137
0.463514
0.460748
0.323993
-0.113696
-0.0943115
0.316504
0.238324
0.325745
-0.136773
-0.483013
0.0556388
0.419773
0.436796
0.106949
-0.413023
-0.0866875
0.310393
0.247013
0.186867
-0.362079
-0.428941
0.0927965
0.431586
0.460852
0.345134
-0.0679945
-0.338025
0.14935
0.40731
-0.146132
-0.0878434
0.0572814
0.318762
0.157092
-0.309916
-0.106618
0.33966
0.346226
0.251886
0.226806
0.246441
0.330571
-0.208773
0.0850496
-0.262097
-0.309258
-0.334343
-0.271615
-0.147642
0.075849
-0.412792
0.0577675
0.38887
0.231829
0.188567
0.330609
0.10946
-0.409674
0.093455
-0.271366
-0.316414
-0.322609
-0.21019
0.213147
-0.317208
-0.389477
0.100372
0.380032
0.245809
0.234204
0.276581
0.371206
-0.124989
-0.336232
0.307294
0.0585329
-0.0800567
-0.351962
-0.0745167
0.442022
-0.198842
-0.433368
-0.0442108
0.443269
0.0395948
-0.171825
-0.30119
-0.341761
-0.328852
-0.245656
-0.0447601
0.0131575
0.14912
-0.410875
-0.331861
0.382978
-0.0451909
-0.232478
-0.344123
-0.411305
-0.315067
-0.177562
0.307708
-0.318168
-0.489673
0.13776
-0.336578
0.381047
-0.0540213
-0.232248
-0.322334
-0.331101
-0.274469
-0.108775
0.236639
-0.00607398
-0.422076
-0.225846
0.224198
-0.280089
-0.389523
-0.0244287
0.153888
-0.266508
-0.140664
0.352583
0.0474874
-0.273813
-0.426495
0.278493
-0.334752
-0.242374
-0.479168
0.210184
-0.212409
0.184639
-0.3631
-0.380855
0.175925
-0.468563
-0.257761
-0.227576
0.160539
-0.376163
-0.180983
0.468496
-0.198527
-0.373084
0.404006
-0.313719
-0.208306
0.415795
0.0441259
-0.134065
-0.227335
-0.235264
-0.181205
-0.0588423
0.122273
0.398436
-0.143091
-0.325734
0.308892
-0.394204
-0.221071
-0.28854
-0.183233
-0.495321
-0.199051
0.373954
-0.256286
0.2465
-0.389568
-0.297294
0.197053
-0.474209
-0.22777
0.407403
-0.263957
-0.457579
-0.081138
0.212884
-0.215378
-0.324974
0.00349758
-0.103363
-0.242556
0.221931
0.392968
0.304738
0.298888
0.32598
0.426517
0.18808
-0.244988
0.103486
-0.0960817
-0.243092
-0.324474
-0.342136
-0.309315
-0.249124
-0.0916933
-0.401351
0.314556
-0.0502917
-0.155053
-0.153708
-0.0614312
0.0996587
0.267832
-0.329305
-0.282854
0.235072
-0.251423
-0.478815
-0.181449
-0.432831
-0.238286
0.0757331
-0.202439
-0.272198
-0.232684
-0.127684
0.0430723
0.214129
-0.364557
-0.199334
0.387832
0.112614
-0.0246398
-0.0991347
-0.0711218
0.0579457
0.377502
-0.258376
-0.247531
0.215441
0.458923
0.467851
0.45469
0.191256
-0.279392
-0.100781
0.347337
0.242372
0.230125
0.292203
-0.219444
-0.336575
0.176691
0.378431
0.34187
0.417999
0.103169
-0.383418
-0.347022
0.26945
0.11209
0.0231076
0.0266838
0.240426
-0.414019
-0.258651
0.288247
0.283931
0.302314
0.399772
0.0343283
-0.459977
-0.180664
0.276864
0.415871
0.366052
0.395779
0.272534
-0.202783
-0.118843
0.324277
0.472412
0.286315
-0.17335
0.0284918
0.422039
0.38148
-0.0461993
-0.244858
0.23684
0.469288
0.180515
-0.335053
-0.291301
0.202809
0.41581
0.267747
-0.233116
-0.101149
0.338951
0.453355
0.119447
-0.423825
-0.106929
0.323546
0.47121
0.32632
-0.106287
0.101709
0.469093
0.0337435
-0.319628
0.258179
0.177164
-0.400178
-0.0139189
0.461201
-0.11081
-0.104209
0.462272
-0.010247
-0.493149
0.0986373
0.366922
-0.209178
0.0796832
0.47256
0.103172
-0.116586
0.459337
-0.216561
0.0186711
-0.0885406
-0.25655
0.427555
-0.38909
-0.387412
0.428749
-0.257417
-0.159682
0.216617
-0.168846
0.469143
-0.112912
-0.310621
0.428941
-0.443938
-0.266743
-0.371235
-0.470928
0.407961
0.410139
-0.471629
-0.408123
0.0819662
-0.397078
0.451059
-0.300865
-0.469771
0.428274
0.353313
0.353719
0.00266895
0.453654
-0.455203
0.418702
0.305166
0.304569
-0.225132
0.439488
0.416476
0.242044
0.241374
-0.357515
0.422979
0.418702
0.305166
0.304569
-0.225131
0.439488
-0.46977
0.428274
0.353313
0.353718
0.0026689
0.453654
-0.455202
-0.310603
0.428941
-0.443913
-0.266756
-0.371267
-0.470936
0.407961
0.410135
-0.471685
-0.408122
0.0819695
-0.39706
0.451059
-0.300848
-0.116395
0.459338
-0.216326
0.0185929
-0.0887287
-0.256622
0.427555
-0.389169
-0.388616
0.428697
-0.258091
-0.159675
0.216634
-0.168657
0.469143
-0.11273
0.103237
0.469108
0.0352534
-0.320831
0.257627
0.175908
-0.401824
-0.0142731
0.461202
-0.111066
-0.110853
0.461721
-0.0161668
-0.493502
0.0987416
0.366959
-0.20868
0.0815796
0.472561
0.104903
-0.102936
0.333063
0.465211
0.290994
-0.152975
0.0244427
0.414545
0.369517
-0.0533625
-0.251014
0.237022
0.470714
0.181432
-0.340483
-0.340452
0.181524
0.471044
0.23556
-0.25612
-0.102629
0.34032
0.452516
0.120092
-0.415428
-0.0967426
0.337813
0.461507
0.340038
-0.10071
-0.237958
0.288932
0.313114
0.272647
0.336062
0.276759
-0.2276
-0.0918765
0.326244
0.459512
0.446565
0.257679
-0.204336
-0.345232
0.151969
0.410055
0.386255
0.436123
0.0863874
-0.414477
-0.415178
0.0870038
0.436104
0.398688
0.418625
0.138908
-0.356553
-0.271169
0.283712
0.265369
0.27267
0.391641
0.0661703
-0.428583
-0.204042
0.326753
0.273146
0.235213
0.249315
0.298601
-0.250485
-0.21046
0.177529
-0.152022
-0.239341
-0.276666
-0.216329
-0.062773
0.347324
-0.227477
-0.127512
0.364988
0.278025
0.202796
0.139915
0.227999
0.284662
-0.287889
-0.365455
0.293149
0.0482852
-0.0554432
-0.0466851
0.0736967
0.322772
0.148427
-0.34003
-0.339241
0.145497
0.333227
0.0896981
-0.0186803
-0.0221866
0.0805637
0.263336
-0.368555
-0.249622
0.00469481
-0.243381
-0.2994
-0.280462
-0.184699
-0.034809
0.309318
-0.36408
-0.177914
0.224457
-0.136102
-0.282134
-0.330285
-0.319922
-0.234874
0.0395954
-0.199656
0.326414
-0.35102
-0.207119
0.241506
-0.462175
-0.432752
-0.0398617
0.322038
-0.0770857
-0.27438
-0.388697
-0.483069
-0.378562
-0.229356
0.125408
-0.197252
-0.259227
0.182758
-0.309293
-0.343083
-0.0876092
0.417065
-0.267932
-0.266824
0.4214
-0.0769806
-0.326346
-0.287068
0.214599
-0.257675
-0.0252445
-0.328229
0.307469
-0.261672
-0.428164
0.401019
-0.239549
-0.45259
0.247662
-0.332271
-0.402629
-0.445946
0.288614
-0.2116
-0.175643
0.434966
-0.115214
-0.476085
-0.342092
0.407179
-0.430812
-0.47597
0.315995
-0.412635
-0.427786
-0.0548803
-0.00707901
-0.398272
-0.40335
-0.0421083
0.000459431
-0.403487
-0.398622
0.308434
-0.265167
-0.273877
0.337629
-0.353164
-0.498727
-0.206958
-0.0383975
-0.058692
-0.273028
0.277285
-0.25455
0.354989
-0.108907
-0.277378
-0.340516
-0.334205
-0.275605
-0.124666
0.0972852
0.268836
-0.276038
-0.263334
-0.0616447
-0.485479
0.034314
-0.355991
-0.26968
0.410249
-0.0482178
-0.241088
-0.345595
-0.414986
-0.345689
-0.241897
-0.0478299
0.412206
-0.256721
-0.169856
-0.296263
-0.230178
-0.451144
0.183981
-0.0253655
-0.226616
-0.320162
-0.329053
-0.251925
-0.0869926
0.366039
-0.344315
0.124903
-0.304386
-0.138844
-0.0440361
0.285085
-0.179553
-0.317722
0.191938
0.329975
0.230524
0.231823
0.274634
0.416817
0.00624065
-0.444775
-0.406003
0.334563
-0.0985016
-0.254465
-0.329906
-0.335405
-0.271401
-0.148141
0.25379
-0.490927
-0.315433
0.170294
0.360912
0.227591
0.178485
0.227249
0.35716
0.178881
-0.305138
-0.418095
0.304883
-0.131797
-0.27202
-0.335767
-0.30741
-0.215069
0.226754
-0.129388
0.361155
0.250313
0.241011
0.365787
0.119432
-0.38055
-0.277382
0.321227
-0.0393589
0.343027
0.336108
-0.14281
-0.323741
0.159523
0.449397
0.461548
0.401517
0.0343495
-0.416769
0.0864407
0.358372
0.239482
0.235256
0.345649
0.0455362
-0.488934
-0.353047
0.138561
0.446329
0.45224
0.448142
0.148077
-0.339296
-0.40568
0.112198
0.337582
0.238445
0.319459
-0.0192975
-0.0595895
0.357502
0.448141
0.113875
-0.403365
-0.234917
0.270144
0.460222
0.0221972
-0.201394
0.272945
0.46135
0.124546
-0.425055
-0.409532
0.115066
0.440372
0.439019
0.108197
-0.434397
-0.24402
0.245917
0.472736
0.257207
-0.227389
-0.363288
0.153431
0.458685
0.0886012
-0.488491
0.0615593
0.359453
-0.235549
-0.0775911
0.438776
-0.258362
0.0124293
0.420268
-0.186115
-0.230378
0.280314
0.295396
-0.223976
-0.0122939
0.472549
0.000996882
-0.128359
0.47182
-0.171402
-0.28482
0.205314
-0.374635
0.438669
-0.259271
0.350964
-0.484374
0.0410156
0.0937135
-0.252064
0.472639
-0.240953
-0.394358
0.472507
-0.410308
-0.00278901
0.253856
-0.49751
0.32879
-0.217366
-0.103746
-0.453424
0.472233
-0.445893
0.450594
-0.327444
-0.012247
0.181307
-0.488805
-0.268459
0.443193
0.305651
-0.281513
-0.0475273
-0.424099
0.375638
0.119712
-0.408302
-0.260118
-0.455811
0.356795
0.012982
-0.348992
-0.23096
-0.289211
0.369064
0.0974942
-0.205789
-0.0204503
-0.0528566
0.420933
0.28412
0.0649837
0.201099
-0.388879
-0.0641378
0.470118
0.408343
0.327782
-0.344834
0.298535
-0.0896174
0.0544402
-0.375678
0.472277
-0.36304
-0.463347
0.470059
-0.453388
-0.248593
0.452912
-0.401305
-0.0661711
0.393117
-0.313771
-0.385839
0.189472
0.234087
-0.356738
-0.127433
0.47269
-0.115259
-0.244349
0.472746
-0.240491
-0.425686
0.0224632
-0.447966
0.459026
-0.103357
-0.325885
0.223833
0.374239
-0.0400683
-0.0434128
0.382673
0.377724
-0.0410267
-0.423829
0.142425
0.472751
0.155672
-0.39888
0.0161313
0.472676
0.014251
-0.0635556
0.263096
-0.443599
-0.158494
0.245654
0.244103
-0.32297
0.0838278
-0.0731794
-0.01572
0.204797
-0.172233
-0.1746
0.242861
0.036487
0.0263954
0.221429
-0.181804
-0.00329231
0.384474
0.468052
0.396178
0.0188799
-0.150752
0.298767
0.435074
0.302223
-0.163153
-0.14816
0.146919
0.0160872
-0.0369709
-0.381571
0.183154
-0.308707
-0.234082
0.0880389
-0.363353
-0.479054
-0.343393
0.127986
0.0980284
-0.320205
-0.345453
0.0764416
-0.0871736
0.373686
0.331022
0.302749
0.329418
0.387016
-0.0660623
-0.24205
0.323803
0.207205
0.0978589
0.119821
0.334343
-0.278028
0.162881
-0.409471
-0.423626
0.156933
-0.42812
0.139744
-0.230362
-0.120174
-0.422478
-0.332064
-0.200404
-0.377844
-0.438724
-0.0209357
0.294219
-0.0415505
-0.179932
-0.228083
-0.18076
-0.0468043
0.265091
0.0132354
-0.413637
-0.133198
0.0849606
-0.229762
-0.396477
-0.307808
-0.0164499
-0.176854
-0.118386
-0.000397388
0.00923069
-0.148861
-0.25199
0.460473
-0.152346
-0.491507
-0.156101
0.463664
-0.236152
-0.378954
0.427811
-0.327114
-0.480741
0.234074
-0.430296
-0.255219
-0.458327
0.134603
-0.466994
-0.469945
0.0748561
-0.435258
-0.262594
-0.307955
0.0644109
-0.0357691
-0.441652
-0.44444
-0.0555723
0.101
-0.292341
-0.434752
-0.0325009
-0.248103
-0.421534
0.182949
-0.494951
-0.24891
0.200369
-0.387519
-0.425405
0.15291
0.103215
-0.102314
-0.157894
-0.0894653
0.203238
-0.0702839
-0.167887
-0.233588
-0.233258
-0.150253
0.0267861
0.41353
-0.223447
-0.224032
0.408574
0.0376279
-0.139547
-0.229306
-0.23613
-0.169985
-0.033053
0.352524
-0.364627
0.0649147
-0.260441
-0.467779
-0.263913
-0.460627
0.137542
-0.0286816
0.0390694
0.157759
-0.167278
0.0152449
0.332643
0.0812033
-0.450627
-0.160316
0.319097
0.302863
0.372183
0.252491
-0.21984
-0.222367
0.24692
0.377761
0.302756
0.301284
0.389682
0.148556
-0.355475
-0.245016
0.302085
0.0336012
-0.0445373
0.102535
-0.0967712
-0.119422
-0.0840611
0.0558609
-0.485319
0.212494
-0.116712
-0.277267
0.470286
-0.2321
0.023646
0.437337
0.265284
-0.182098
-0.18413
0.264675
0.463364
0.450974
0.168715
-0.332808
-0.132988
0.373473
0.223554
-0.3272
0.0147561
0.136503
-0.0968016
0.364365
-0.253288
0.41104
-0.0126993
-0.0133036
0.417211
0.301284
-0.16847
0.161106
-0.129648
-0.393644
-0.30465
-0.472316
0.0306864
-0.495144
0.378964
-0.286526
-0.310592
0.328431
0.0637694
-0.115238
-0.347653
0.392139
0.185242
-0.183512
-0.439923
0.242561
0.0846752
-0.403297
0.0214227